# vtk DataFile Version 2.0
cell attributes
ASCII

DATASET UNSTRUCTURED_GRID
POINTS    4509  float
   3.800000E-01   0.000000E+00   0.000000E+00
  -3.800000E-01   0.000000E+00   0.000000E+00
   0.000000E+00   3.800000E-01   0.000000E+00
   0.000000E+00  -3.800000E-01   0.000000E+00
   0.000000E+00   0.000000E+00   3.800000E-01
   0.000000E+00   0.000000E+00  -3.800000E-01
   5.000000E-01   5.000000E-01   5.000000E-01
   5.000000E-01   5.000000E-01  -5.000000E-01
   5.000000E-01  -5.000000E-01   5.000000E-01
   5.000000E-01  -5.000000E-01  -5.000000E-01
  -5.000000E-01   5.000000E-01   5.000000E-01
  -5.000000E-01   5.000000E-01  -5.000000E-01
  -5.000000E-01  -5.000000E-01   5.000000E-01
  -5.000000E-01  -5.000000E-01  -5.000000E-01
   0.000000E+00   9.835124E-02   3.670518E-01
   0.000000E+00   1.900000E-01   3.290897E-01
   0.000000E+00   2.687006E-01   2.687006E-01
   0.000000E+00   3.290897E-01   1.900000E-01
   0.000000E+00   3.670518E-01   9.835124E-02
  -9.835124E-02   0.000000E+00   3.670518E-01
  -1.900000E-01   0.000000E+00   3.290897E-01
  -2.687006E-01   0.000000E+00   2.687006E-01
  -3.290897E-01   0.000000E+00   1.900000E-01
  -3.670518E-01   0.000000E+00   9.835124E-02
  -3.670518E-01   0.000000E+00  -9.835124E-02
  -3.290897E-01   0.000000E+00  -1.900000E-01
  -2.687006E-01   0.000000E+00  -2.687006E-01
  -1.900000E-01   0.000000E+00  -3.290897E-01
  -9.835124E-02   0.000000E+00  -3.670518E-01
   9.835124E-02   0.000000E+00  -3.670518E-01
   1.900000E-01   0.000000E+00  -3.290897E-01
   2.687006E-01   0.000000E+00  -2.687006E-01
   3.290897E-01   0.000000E+00  -1.900000E-01
   3.670518E-01   0.000000E+00  -9.835124E-02
   3.670518E-01   0.000000E+00   9.835124E-02
   3.290897E-01   0.000000E+00   1.900000E-01
   2.687006E-01   0.000000E+00   2.687006E-01
   1.900000E-01   0.000000E+00   3.290897E-01
   9.835124E-02   0.000000E+00   3.670518E-01
   0.000000E+00   3.670518E-01  -9.835124E-02
   0.000000E+00   3.290897E-01  -1.900000E-01
   0.000000E+00   2.687006E-01  -2.687006E-01
   0.000000E+00   1.900000E-01  -3.290897E-01
   0.000000E+00   9.835124E-02  -3.670518E-01
  -3.670518E-01   9.835124E-02   0.000000E+00
  -3.290897E-01   1.900000E-01   0.000000E+00
  -2.687006E-01   2.687006E-01   0.000000E+00
  -1.900000E-01   3.290897E-01   0.000000E+00
  -9.835124E-02   3.670518E-01   0.000000E+00
   9.835124E-02   3.670518E-01   0.000000E+00
   1.900000E-01   3.290897E-01   0.000000E+00
   2.687006E-01   2.687006E-01   0.000000E+00
   3.290897E-01   1.900000E-01   0.000000E+00
   3.670518E-01   9.835124E-02   0.000000E+00
   3.670518E-01  -9.835124E-02   0.000000E+00
   3.290897E-01  -1.900000E-01   0.000000E+00
   2.687006E-01  -2.687006E-01   0.000000E+00
   1.900000E-01  -3.290897E-01   0.000000E+00
   9.835124E-02  -3.670518E-01   0.000000E+00
  -9.835124E-02  -3.670518E-01   0.000000E+00
  -1.900000E-01  -3.290897E-01   0.000000E+00
  -2.687006E-01  -2.687006E-01   0.000000E+00
  -3.290897E-01  -1.900000E-01   0.000000E+00
  -3.670518E-01  -9.835124E-02   0.000000E+00
   0.000000E+00  -3.670518E-01   9.835124E-02
   0.000000E+00  -3.290897E-01   1.900000E-01
   0.000000E+00  -2.687006E-01   2.687006E-01
   0.000000E+00  -1.900000E-01   3.290897E-01
   0.000000E+00  -9.835124E-02   3.670518E-01
   0.000000E+00  -3.670518E-01  -9.835124E-02
   0.000000E+00  -3.290897E-01  -1.900000E-01
   0.000000E+00  -2.687006E-01  -2.687006E-01
   0.000000E+00  -1.900000E-01  -3.290897E-01
   0.000000E+00  -9.835124E-02  -3.670518E-01
   5.000000E-01   5.000000E-01   4.500000E-01
   5.000000E-01   5.000000E-01   4.000000E-01
   5.000000E-01   5.000000E-01   3.500000E-01
   5.000000E-01   5.000000E-01   3.000000E-01
   5.000000E-01   5.000000E-01   2.500000E-01
   5.000000E-01   5.000000E-01   2.000000E-01
   5.000000E-01   5.000000E-01   1.500000E-01
   5.000000E-01   5.000000E-01   1.000000E-01
   5.000000E-01   5.000000E-01   5.000000E-02
   5.000000E-01   5.000000E-01   1.376121E-12
   5.000000E-01   5.000000E-01  -5.000000E-02
   5.000000E-01   5.000000E-01  -1.000000E-01
   5.000000E-01   5.000000E-01  -1.500000E-01
   5.000000E-01   5.000000E-01  -2.000000E-01
   5.000000E-01   5.000000E-01  -2.500000E-01
   5.000000E-01   5.000000E-01  -3.000000E-01
   5.000000E-01   5.000000E-01  -3.500000E-01
   5.000000E-01   5.000000E-01  -4.000000E-01
   5.000000E-01   5.000000E-01  -4.500000E-01
   4.500000E-01   5.000000E-01  -5.000000E-01
   4.000000E-01   5.000000E-01  -5.000000E-01
   3.500000E-01   5.000000E-01  -5.000000E-01
   3.000000E-01   5.000000E-01  -5.000000E-01
   2.500000E-01   5.000000E-01  -5.000000E-01
   2.000000E-01   5.000000E-01  -5.000000E-01
   1.500000E-01   5.000000E-01  -5.000000E-01
   1.000000E-01   5.000000E-01  -5.000000E-01
   5.000000E-02   5.000000E-01  -5.000000E-01
   1.376121E-12   5.000000E-01  -5.000000E-01
  -5.000000E-02   5.000000E-01  -5.000000E-01
  -1.000000E-01   5.000000E-01  -5.000000E-01
  -1.500000E-01   5.000000E-01  -5.000000E-01
  -2.000000E-01   5.000000E-01  -5.000000E-01
  -2.500000E-01   5.000000E-01  -5.000000E-01
  -3.000000E-01   5.000000E-01  -5.000000E-01
  -3.500000E-01   5.000000E-01  -5.000000E-01
  -4.000000E-01   5.000000E-01  -5.000000E-01
  -4.500000E-01   5.000000E-01  -5.000000E-01
  -5.000000E-01   5.000000E-01  -4.500000E-01
  -5.000000E-01   5.000000E-01  -4.000000E-01
  -5.000000E-01   5.000000E-01  -3.500000E-01
  -5.000000E-01   5.000000E-01  -3.000000E-01
  -5.000000E-01   5.000000E-01  -2.500000E-01
  -5.000000E-01   5.000000E-01  -2.000000E-01
  -5.000000E-01   5.000000E-01  -1.500000E-01
  -5.000000E-01   5.000000E-01  -1.000000E-01
  -5.000000E-01   5.000000E-01  -5.000000E-02
  -5.000000E-01   5.000000E-01  -1.376121E-12
  -5.000000E-01   5.000000E-01   5.000000E-02
  -5.000000E-01   5.000000E-01   1.000000E-01
  -5.000000E-01   5.000000E-01   1.500000E-01
  -5.000000E-01   5.000000E-01   2.000000E-01
  -5.000000E-01   5.000000E-01   2.500000E-01
  -5.000000E-01   5.000000E-01   3.000000E-01
  -5.000000E-01   5.000000E-01   3.500000E-01
  -5.000000E-01   5.000000E-01   4.000000E-01
  -5.000000E-01   5.000000E-01   4.500000E-01
  -4.500000E-01   5.000000E-01   5.000000E-01
  -4.000000E-01   5.000000E-01   5.000000E-01
  -3.500000E-01   5.000000E-01   5.000000E-01
  -3.000000E-01   5.000000E-01   5.000000E-01
  -2.500000E-01   5.000000E-01   5.000000E-01
  -2.000000E-01   5.000000E-01   5.000000E-01
  -1.500000E-01   5.000000E-01   5.000000E-01
  -1.000000E-01   5.000000E-01   5.000000E-01
  -5.000000E-02   5.000000E-01   5.000000E-01
  -1.376121E-12   5.000000E-01   5.000000E-01
   5.000000E-02   5.000000E-01   5.000000E-01
   1.000000E-01   5.000000E-01   5.000000E-01
   1.500000E-01   5.000000E-01   5.000000E-01
   2.000000E-01   5.000000E-01   5.000000E-01
   2.500000E-01   5.000000E-01   5.000000E-01
   3.000000E-01   5.000000E-01   5.000000E-01
   3.500000E-01   5.000000E-01   5.000000E-01
   4.000000E-01   5.000000E-01   5.000000E-01
   4.500000E-01   5.000000E-01   5.000000E-01
   5.000000E-01   4.500000E-01  -5.000000E-01
   5.000000E-01   4.000000E-01  -5.000000E-01
   5.000000E-01   3.500000E-01  -5.000000E-01
   5.000000E-01   3.000000E-01  -5.000000E-01
   5.000000E-01   2.500000E-01  -5.000000E-01
   5.000000E-01   2.000000E-01  -5.000000E-01
   5.000000E-01   1.500000E-01  -5.000000E-01
   5.000000E-01   1.000000E-01  -5.000000E-01
   5.000000E-01   5.000000E-02  -5.000000E-01
   5.000000E-01   1.376121E-12  -5.000000E-01
   5.000000E-01  -5.000000E-02  -5.000000E-01
   5.000000E-01  -1.000000E-01  -5.000000E-01
   5.000000E-01  -1.500000E-01  -5.000000E-01
   5.000000E-01  -2.000000E-01  -5.000000E-01
   5.000000E-01  -2.500000E-01  -5.000000E-01
   5.000000E-01  -3.000000E-01  -5.000000E-01
   5.000000E-01  -3.500000E-01  -5.000000E-01
   5.000000E-01  -4.000000E-01  -5.000000E-01
   5.000000E-01  -4.500000E-01  -5.000000E-01
   5.000000E-01  -5.000000E-01  -4.500000E-01
   5.000000E-01  -5.000000E-01  -4.000000E-01
   5.000000E-01  -5.000000E-01  -3.500000E-01
   5.000000E-01  -5.000000E-01  -3.000000E-01
   5.000000E-01  -5.000000E-01  -2.500000E-01
   5.000000E-01  -5.000000E-01  -2.000000E-01
   5.000000E-01  -5.000000E-01  -1.500000E-01
   5.000000E-01  -5.000000E-01  -1.000000E-01
   5.000000E-01  -5.000000E-01  -5.000000E-02
   5.000000E-01  -5.000000E-01  -1.376121E-12
   5.000000E-01  -5.000000E-01   5.000000E-02
   5.000000E-01  -5.000000E-01   1.000000E-01
   5.000000E-01  -5.000000E-01   1.500000E-01
   5.000000E-01  -5.000000E-01   2.000000E-01
   5.000000E-01  -5.000000E-01   2.500000E-01
   5.000000E-01  -5.000000E-01   3.000000E-01
   5.000000E-01  -5.000000E-01   3.500000E-01
   5.000000E-01  -5.000000E-01   4.000000E-01
   5.000000E-01  -5.000000E-01   4.500000E-01
   4.500000E-01  -5.000000E-01   5.000000E-01
   4.000000E-01  -5.000000E-01   5.000000E-01
   3.500000E-01  -5.000000E-01   5.000000E-01
   3.000000E-01  -5.000000E-01   5.000000E-01
   2.500000E-01  -5.000000E-01   5.000000E-01
   2.000000E-01  -5.000000E-01   5.000000E-01
   1.500000E-01  -5.000000E-01   5.000000E-01
   1.000000E-01  -5.000000E-01   5.000000E-01
   5.000000E-02  -5.000000E-01   5.000000E-01
   1.376121E-12  -5.000000E-01   5.000000E-01
  -5.000000E-02  -5.000000E-01   5.000000E-01
  -1.000000E-01  -5.000000E-01   5.000000E-01
  -1.500000E-01  -5.000000E-01   5.000000E-01
  -2.000000E-01  -5.000000E-01   5.000000E-01
  -2.500000E-01  -5.000000E-01   5.000000E-01
  -3.000000E-01  -5.000000E-01   5.000000E-01
  -3.500000E-01  -5.000000E-01   5.000000E-01
  -4.000000E-01  -5.000000E-01   5.000000E-01
  -4.500000E-01  -5.000000E-01   5.000000E-01
  -5.000000E-01  -5.000000E-01   4.500000E-01
  -5.000000E-01  -5.000000E-01   4.000000E-01
  -5.000000E-01  -5.000000E-01   3.500000E-01
  -5.000000E-01  -5.000000E-01   3.000000E-01
  -5.000000E-01  -5.000000E-01   2.500000E-01
  -5.000000E-01  -5.000000E-01   2.000000E-01
  -5.000000E-01  -5.000000E-01   1.500000E-01
  -5.000000E-01  -5.000000E-01   1.000000E-01
[...]
CELL_DATA     486
SCALARS P double
LOOKUP_TABLE default
   0.000000E+00
   2.752648E-15
   0.000000E+00
   2.816345E-15
   2.012787E-15
   1.069302E-15
   0.000000E+00
   0.000000E+00
   1.875130E-15
   1.889160E-15
   4.160757E-16
   0.000000E+00
   1.145467E-15
   1.174312E-15
   3.786181E-16
   2.095407E-15
   2.971503E-15
   2.943418E-15
   3.264885E-18
   1.370765E-18
   2.236932E-15
   3.098043E-16
   1.297662E-17
   4.033991E-16
   4.046489E-16
   1.494446E-18
   0.000000E+00
   1.444178E-18
   3.040816E-15
   0.000000E+00
   3.048627E-15
   9.447081E-18
   0.000000E+00
   4.259812E-16
   9.268653E-16
   3.117041E-16
   4.188794E-16
   0.000000E+00
   1.884801E-15
   8.932404E-16
   5.534416E-20
   4.054283E-16
   3.161488E-15
   1.613713E-18
   3.483929E-16
   2.469516E-15
   1.897666E-15
   0.000000E+00
   4.027268E-16
   1.429515E-17
   8.782518E-16
   2.978085E-15
   0.000000E+00
   0.000000E+00
   8.865619E-16
   0.000000E+00
   1.422099E-16
   1.108159E-15
   0.000000E+00
   7.407854E-19
   7.777884E-18
   0.000000E+00
   0.000000E+00
   0.000000E+00
   5.571076E-19
   0.000000E+00
   1.278452E-17
   4.817239E-17
   0.000000E+00
   3.066618E-16
   0.000000E+00
   0.000000E+00
   3.121976E-15
   4.060379E-16
   1.469679E-18
   0.000000E+00
   3.003354E-15
   7.020184E-19
   1.142163E-15
   0.000000E+00
   7.313067E-16
   1.106286E-17
   8.291616E-16
   3.067930E-15
   1.903519E-17
   0.000000E+00
   2.309452E-15
   0.000000E+00
   2.454380E-15
   2.926269E-15
   3.001634E-18
   2.577753E-16
   0.000000E+00
   1.764057E-18
   1.547516E-18
   0.000000E+00
   0.000000E+00
   1.961874E-15
   1.564340E-15
   2.192875E-15
   1.717186E-18
   4.607126E-16
   1.147870E-15
   0.000000E+00
   1.395426E-17
   3.298784E-18
   1.568013E-15
   1.588142E-15
   2.130108E-15
   4.007793E-16
   1.118855E-17
   7.467737E-19
   1.945827E-15
   0.000000E+00
   0.000000E+00
   1.524548E-18
   2.360155E-15
   1.141376E-17
   2.358125E-15
   1.366824E-15
   1.209354E-17
   5.154147E-16
   2.343932E-15
   1.459661E-16
   1.567290E-15
   3.111593E-16
   1.359042E-17
   0.000000E+00
   4.193734E-16
   0.000000E+00
   0.000000E+00
   3.061547E-16
   6.770471E-16
   2.804824E-15
   0.000000E+00
   0.000000E+00
   0.000000E+00
   2.250471E-15
   0.000000E+00
   2.554190E-20
   2.001950E-15
   1.906856E-15
   2.069942E-15
   0.000000E+00
   0.000000E+00
   1.846297E-15
   1.986111E-15
   0.000000E+00
   1.900662E-15
   2.812680E-15
   1.718346E-17
   0.000000E+00
   0.000000E+00
   1.281149E-18
   2.985715E-19
   0.000000E+00
   1.639610E-18
   0.000000E+00
   2.345312E-15
   2.851126E-15
   0.000000E+00
   0.000000E+00
   0.000000E+00
   0.000000E+00
   0.000000E+00
   0.000000E+00
   0.000000E+00
   1.015625E-15
   6.848565E-16
   1.887008E-15
   4.356118E-17
   0.000000E+00
   1.131296E-15
   0.000000E+00
   0.000000E+00
   6.808249E-16
   4.122512E-20
   2.692197E-15
   2.455797E-15
   0.000000E+00
   2.795734E-15
   1.535758E-15
   8.945539E-16
   1.230212E-15
   0.000000E+00
   2.926156E-18
   2.283623E-15
   2.806880E-15
   0.000000E+00
   7.697106E-20
   2.136135E-15
   0.000000E+00
   1.385701E-15
   2.834592E-15
   3.194917E-16
   8.271582E-16
   0.000000E+00
   0.000000E+00
   1.141862E-15
   2.564767E-20
   0.000000E+00
   0.000000E+00
   0.000000E+00
   3.056123E-15
   1.703454E-18
   0.000000E+00
   0.000000E+00
   1.861394E-15
   0.000000E+00
   0.000000E+00
   0.000000E+00
   4.584750E-16
   1.580409E-15
   0.000000E+00
   2.072047E-20
   2.475629E-20
   0.000000E+00
   1.433656E-17
   2.606225E-16
   1.028208E-17
   1.299887E-17
   0.000000E+00
   0.000000E+00
   2.222180E-15
   9.039431E-16
   3.048893E-16
   0.000000E+00
   1.891636E-15
   2.462136E-15
   2.782723E-15
   0.000000E+00
   0.000000E+00
   1.417328E-15
   0.000000E+00
   0.000000E+00
   1.194874E-15
   0.000000E+00
   2.360596E-15
   1.224218E-15
   1.572135E-15
   0.000000E+00
   2.431173E-15
   1.365813E-15
   0.000000E+00
   0.000000E+00
   4.337730E-17
   0.000000E+00
   0.000000E+00
   0.000000E+00
   0.000000E+00
   1.124239E-15
   0.000000E+00
   0.000000E+00
   1.307238E-18
   2.284615E-15
   0.000000E+00
   0.000000E+00
   0.000000E+00
   0.000000E+00
   1.319740E-15
   1.196288E-17
   1.589434E-15
   4.286952E-19
   0.000000E+00
   1.190953E-15
   1.570083E-15
   0.000000E+00
   1.307261E-15
   2.618838E-15
   0.000000E+00
   0.000000E+00
   2.450013E-15
   0.000000E+00
   0.000000E+00
   3.116850E-16
   0.000000E+00
   1.271786E-15
   1.828600E-15
   1.843578E-15
   9.855687E-16
   0.000000E+00
   1.760383E-15
   6.014194E-18
   0.000000E+00
   2.440239E-15
   3.672466E-16
   1.761867E-15
   2.906489E-15
   2.862279E-15
   1.001986E-15
   0.000000E+00
   0.000000E+00
   2.877131E-15
   0.000000E+00
   1.027072E-15
   0.000000E+00
   2.970617E-16
   2.362639E-20
   0.000000E+00
   2.240592E-15
   0.000000E+00
   1.772986E-15
   1.874004E-15
   3.851112E-16
   1.461814E-16
   1.659309E-15
   2.959412E-16
   1.048560E-15
   2.096939E-18
   0.000000E+00
   0.000000E+00
   0.000000E+00
   2.104186E-15
   0.000000E+00
   3.241157E-16
   2.923382E-15
   3.988869E-16
   0.000000E+00
   2.708678E-15
   2.600548E-16
   1.854963E-15
   9.115376E-16
   0.000000E+00
   1.386394E-15
   4.194082E-16
   0.000000E+00
   0.000000E+00
   2.436377E-15
   2.473439E-15
   4.370534E-17
   2.470439E-15
   0.000000E+00
   2.875946E-18
   2.491350E-20
   9.196589E-16
   0.000000E+00
   0.000000E+00
   0.000000E+00
   1.825527E-15
   2.093100E-15
   0.000000E+00
   3.924035E-16
   2.608575E-15
   0.000000E+00
   0.000000E+00
   1.904126E-15
   5.210928E-16
   0.000000E+00
   1.369329E-15
   4.127020E-16
   0.000000E+00
   2.463903E-15
   0.000000E+00
   1.165242E-15
   0.000000E+00
   2.458906E-15
   0.000000E+00
   0.000000E+00
   0.000000E+00
   0.000000E+00
   1.894421E-15
   0.000000E+00
   0.000000E+00
   1.137462E-15
   2.820013E-15
   2.452641E-15
   0.000000E+00
   1.134594E-15
   1.603810E-15
   0.000000E+00
   0.000000E+00
   3.706725E-16
   0.000000E+00
   2.122755E-15
   1.958843E-17
   2.687560E-15
   4.111509E-16
   0.000000E+00
   1.470362E-16
   0.000000E+00
   8.309135E-16
   0.000000E+00
   2.689638E-15
   1.171250E-15
   3.845809E-16
   2.514824E-15
   0.000000E+00
   1.029856E-15
   0.000000E+00
   0.000000E+00
   2.490740E-15
   2.510268E-15
   0.000000E+00
   8.426751E-16
   0.000000E+00
   2.631912E-15
   1.150162E-15
   3.905810E-16
   0.000000E+00
   1.527320E-15
   0.000000E+00
   1.516871E-15
   0.000000E+00
   2.683178E-18
   8.203667E-16
   1.135612E-15
   2.101023E-15
   0.000000E+00
   0.000000E+00
   1.441333E-15
   1.957385E-15
   0.000000E+00
   3.004649E-16
   1.866413E-15
   1.966322E-15
   0.000000E+00
   1.559449E-15
   1.158283E-15
   4.596677E-16
   3.977399E-16
   2.331753E-15
   0.000000E+00
   0.000000E+00
   1.164098E-15
   2.832785E-15
   0.000000E+00
   0.000000E+00
   2.566189E-20
   1.032879E-19
   2.742534E-18
   4.514789E-16
   0.000000E+00
   0.000000E+00
   2.853416E-15
   0.000000E+00
   4.191641E-16
   8.160972E-16
   2.856458E-15
   3.687074E-16
   0.000000E+00
   2.336517E-15
   0.000000E+00
   0.000000E+00
   0.000000E+00
   0.000000E+00
   2.340643E-16
   0.000000E+00
   2.642492E-15
   0.000000E+00
   1.554472E-15
   0.000000E+00
   1.514816E-15
   2.220124E-15
   5.264577E-16
   1.563397E-17
   1.634704E-18
   0.000000E+00
   0.000000E+00
   1.182824E-15
   0.000000E+00
   0.000000E+00
   0.000000E+00
   8.466555E-16
   1.178724E-15
   1.574235E-15
   2.823151E-15
   1.163346E-15
   4.890510E-20
   0.000000E+00
   2.811748E-15
   9.903716E-16
   0.000000E+00
   1.370226E-15
   0.000000E+00
   0.000000E+00
   8.519940E-16
   1.043376E-15
   0.000000E+00
   1.388252E-15
   0.000000E+00
   0.000000E+00
   0.000000E+00
   2.845978E-15
   9.033017E-16
   0.000000E+00
   2.851789E-15
