# vtk DataFile Version 2.0
cell attributes
ASCII

DATASET UNSTRUCTURED_GRID
POINTS    6788  float
   1.500000E-01   0.000000E+00   0.000000E+00
  -1.500000E-01   0.000000E+00   0.000000E+00
   0.000000E+00   1.500000E-01   0.000000E+00
   0.000000E+00  -1.500000E-01   0.000000E+00
   0.000000E+00   0.000000E+00   1.500000E-01
   0.000000E+00   0.000000E+00  -1.500000E-01
   5.000000E-01   5.000000E-01   5.000000E-01
   5.000000E-01   5.000000E-01  -5.000000E-01
   5.000000E-01  -5.000000E-01   5.000000E-01
   5.000000E-01  -5.000000E-01  -5.000000E-01
  -5.000000E-01   5.000000E-01   5.000000E-01
  -5.000000E-01   5.000000E-01  -5.000000E-01
  -5.000000E-01  -5.000000E-01   5.000000E-01
  -5.000000E-01  -5.000000E-01  -5.000000E-01
   0.000000E+00   3.882286E-02   1.448889E-01
   0.000000E+00   7.500000E-02   1.299038E-01
   0.000000E+00   1.060660E-01   1.060660E-01
   0.000000E+00   1.299038E-01   7.500000E-02
   0.000000E+00   1.448889E-01   3.882286E-02
  -3.882286E-02   0.000000E+00   1.448889E-01
  -7.500000E-02   0.000000E+00   1.299038E-01
  -1.060660E-01   0.000000E+00   1.060660E-01
  -1.299038E-01   0.000000E+00   7.500000E-02
  -1.448889E-01   0.000000E+00   3.882286E-02
  -1.448889E-01   0.000000E+00  -3.882286E-02
  -1.299038E-01   0.000000E+00  -7.500000E-02
  -1.060660E-01   0.000000E+00  -1.060660E-01
  -7.500000E-02   0.000000E+00  -1.299038E-01
  -3.882286E-02   0.000000E+00  -1.448889E-01
   3.882286E-02   0.000000E+00  -1.448889E-01
   7.500000E-02   0.000000E+00  -1.299038E-01
   1.060660E-01   0.000000E+00  -1.060660E-01
   1.299038E-01   0.000000E+00  -7.500000E-02
   1.448889E-01   0.000000E+00  -3.882286E-02
   1.448889E-01   0.000000E+00   3.882286E-02
   1.299038E-01   0.000000E+00   7.500000E-02
   1.060660E-01   0.000000E+00   1.060660E-01
   7.500000E-02   0.000000E+00   1.299038E-01
   3.882286E-02   0.000000E+00   1.448889E-01
   0.000000E+00   1.448889E-01  -3.882286E-02
   0.000000E+00   1.299038E-01  -7.500000E-02
   0.000000E+00   1.060660E-01  -1.060660E-01
   0.000000E+00   7.500000E-02  -1.299038E-01
   0.000000E+00   3.882286E-02  -1.448889E-01
  -1.448889E-01   3.882286E-02   0.000000E+00
  -1.299038E-01   7.500000E-02   0.000000E+00
  -1.060660E-01   1.060660E-01   0.000000E+00
  -7.500000E-02   1.299038E-01   0.000000E+00
  -3.882286E-02   1.448889E-01   0.000000E+00
   3.882286E-02   1.448889E-01   0.000000E+00
   7.500000E-02   1.299038E-01   0.000000E+00
   1.060660E-01   1.060660E-01   0.000000E+00
   1.299038E-01   7.500000E-02   0.000000E+00
   1.448889E-01   3.882286E-02   0.000000E+00
   1.448889E-01  -3.882286E-02   0.000000E+00
   1.299038E-01  -7.500000E-02   0.000000E+00
   1.060660E-01  -1.060660E-01   0.000000E+00
   7.500000E-02  -1.299038E-01   0.000000E+00
   3.882286E-02  -1.448889E-01   0.000000E+00
  -3.882286E-02  -1.448889E-01   0.000000E+00
  -7.500000E-02  -1.299038E-01   0.000000E+00
  -1.060660E-01  -1.060660E-01   0.000000E+00
  -1.299038E-01  -7.500000E-02   0.000000E+00
  -1.448889E-01  -3.882286E-02   0.000000E+00
   0.000000E+00  -1.448889E-01   3.882286E-02
   0.000000E+00  -1.299038E-01   7.500000E-02
   0.000000E+00  -1.060660E-01   1.060660E-01
   0.000000E+00  -7.500000E-02   1.299038E-01
   0.000000E+00  -3.882286E-02   1.448889E-01
   0.000000E+00  -1.448889E-01  -3.882286E-02
   0.000000E+00  -1.299038E-01  -7.500000E-02
   0.000000E+00  -1.060660E-01  -1.060660E-01
   0.000000E+00  -7.500000E-02  -1.299038E-01
   0.000000E+00  -3.882286E-02  -1.448889E-01
   5.000000E-01   5.000000E-01   4.500000E-01
   5.000000E-01   5.000000E-01   4.000000E-01
   5.000000E-01   5.000000E-01   3.500000E-01
   5.000000E-01   5.000000E-01   3.000000E-01
   5.000000E-01   5.000000E-01   2.500000E-01
   5.000000E-01   5.000000E-01   2.000000E-01
   5.000000E-01   5.000000E-01   1.500000E-01
   5.000000E-01   5.000000E-01   1.000000E-01
   5.000000E-01   5.000000E-01   5.000000E-02
   5.000000E-01   5.000000E-01   1.376121E-12
   5.000000E-01   5.000000E-01  -5.000000E-02
   5.000000E-01   5.000000E-01  -1.000000E-01
   5.000000E-01   5.000000E-01  -1.500000E-01
   5.000000E-01   5.000000E-01  -2.000000E-01
   5.000000E-01   5.000000E-01  -2.500000E-01
   5.000000E-01   5.000000E-01  -3.000000E-01
   5.000000E-01   5.000000E-01  -3.500000E-01
   5.000000E-01   5.000000E-01  -4.000000E-01
   5.000000E-01   5.000000E-01  -4.500000E-01
   4.500000E-01   5.000000E-01  -5.000000E-01
   4.000000E-01   5.000000E-01  -5.000000E-01
   3.500000E-01   5.000000E-01  -5.000000E-01
   3.000000E-01   5.000000E-01  -5.000000E-01
   2.500000E-01   5.000000E-01  -5.000000E-01
   2.000000E-01   5.000000E-01  -5.000000E-01
   1.500000E-01   5.000000E-01  -5.000000E-01
   1.000000E-01   5.000000E-01  -5.000000E-01
   5.000000E-02   5.000000E-01  -5.000000E-01
   1.376121E-12   5.000000E-01  -5.000000E-01
  -5.000000E-02   5.000000E-01  -5.000000E-01
  -1.000000E-01   5.000000E-01  -5.000000E-01
  -1.500000E-01   5.000000E-01  -5.000000E-01
  -2.000000E-01   5.000000E-01  -5.000000E-01
  -2.500000E-01   5.000000E-01  -5.000000E-01
  -3.000000E-01   5.000000E-01  -5.000000E-01
  -3.500000E-01   5.000000E-01  -5.000000E-01
  -4.000000E-01   5.000000E-01  -5.000000E-01
  -4.500000E-01   5.000000E-01  -5.000000E-01
  -5.000000E-01   5.000000E-01  -4.500000E-01
  -5.000000E-01   5.000000E-01  -4.000000E-01
  -5.000000E-01   5.000000E-01  -3.500000E-01
  -5.000000E-01   5.000000E-01  -3.000000E-01
  -5.000000E-01   5.000000E-01  -2.500000E-01
  -5.000000E-01   5.000000E-01  -2.000000E-01
  -5.000000E-01   5.000000E-01  -1.500000E-01
  -5.000000E-01   5.000000E-01  -1.000000E-01
  -5.000000E-01   5.000000E-01  -5.000000E-02
  -5.000000E-01   5.000000E-01  -1.376121E-12
  -5.000000E-01   5.000000E-01   5.000000E-02
  -5.000000E-01   5.000000E-01   1.000000E-01
  -5.000000E-01   5.000000E-01   1.500000E-01
  -5.000000E-01   5.000000E-01   2.000000E-01
  -5.000000E-01   5.000000E-01   2.500000E-01
  -5.000000E-01   5.000000E-01   3.000000E-01
  -5.000000E-01   5.000000E-01   3.500000E-01
  -5.000000E-01   5.000000E-01   4.000000E-01
  -5.000000E-01   5.000000E-01   4.500000E-01
  -4.500000E-01   5.000000E-01   5.000000E-01
  -4.000000E-01   5.000000E-01   5.000000E-01
  -3.500000E-01   5.000000E-01   5.000000E-01
  -3.000000E-01   5.000000E-01   5.000000E-01
  -2.500000E-01   5.000000E-01   5.000000E-01
  -2.000000E-01   5.000000E-01   5.000000E-01
  -1.500000E-01   5.000000E-01   5.000000E-01
  -1.000000E-01   5.000000E-01   5.000000E-01
  -5.000000E-02   5.000000E-01   5.000000E-01
  -1.376121E-12   5.000000E-01   5.000000E-01
   5.000000E-02   5.000000E-01   5.000000E-01
   1.000000E-01   5.000000E-01   5.000000E-01
   1.500000E-01   5.000000E-01   5.000000E-01
   2.000000E-01   5.000000E-01   5.000000E-01
   2.500000E-01   5.000000E-01   5.000000E-01
   3.000000E-01   5.000000E-01   5.000000E-01
   3.500000E-01   5.000000E-01   5.000000E-01
   4.000000E-01   5.000000E-01   5.000000E-01
   4.500000E-01   5.000000E-01   5.000000E-01
   5.000000E-01   4.500000E-01  -5.000000E-01
   5.000000E-01   4.000000E-01  -5.000000E-01
   5.000000E-01   3.500000E-01  -5.000000E-01
   5.000000E-01   3.000000E-01  -5.000000E-01
   5.000000E-01   2.500000E-01  -5.000000E-01
   5.000000E-01   2.000000E-01  -5.000000E-01
   5.000000E-01   1.500000E-01  -5.000000E-01
   5.000000E-01   1.000000E-01  -5.000000E-01
   5.000000E-01   5.000000E-02  -5.000000E-01
   5.000000E-01   1.376121E-12  -5.000000E-01
   5.000000E-01  -5.000000E-02  -5.000000E-01
   5.000000E-01  -1.000000E-01  -5.000000E-01
   5.000000E-01  -1.500000E-01  -5.000000E-01
   5.000000E-01  -2.000000E-01  -5.000000E-01
   5.000000E-01  -2.500000E-01  -5.000000E-01
   5.000000E-01  -3.000000E-01  -5.000000E-01
   5.000000E-01  -3.500000E-01  -5.000000E-01
   5.000000E-01  -4.000000E-01  -5.000000E-01
   5.000000E-01  -4.500000E-01  -5.000000E-01
   5.000000E-01  -5.000000E-01  -4.500000E-01
   5.000000E-01  -5.000000E-01  -4.000000E-01
   5.000000E-01  -5.000000E-01  -3.500000E-01
   5.000000E-01  -5.000000E-01  -3.000000E-01
   5.000000E-01  -5.000000E-01  -2.500000E-01
   5.000000E-01  -5.000000E-01  -2.000000E-01
   5.000000E-01  -5.000000E-01  -1.500000E-01
   5.000000E-01  -5.000000E-01  -1.000000E-01
   5.000000E-01  -5.000000E-01  -5.000000E-02
   5.000000E-01  -5.000000E-01  -1.376121E-12
   5.000000E-01  -5.000000E-01   5.000000E-02
   5.000000E-01  -5.000000E-01   1.000000E-01
   5.000000E-01  -5.000000E-01   1.500000E-01
   5.000000E-01  -5.000000E-01   2.000000E-01
   5.000000E-01  -5.000000E-01   2.500000E-01
   5.000000E-01  -5.000000E-01   3.000000E-01
   5.000000E-01  -5.000000E-01   3.500000E-01
   5.000000E-01  -5.000000E-01   4.000000E-01
   5.000000E-01  -5.000000E-01   4.500000E-01
   4.500000E-01  -5.000000E-01   5.000000E-01
   4.000000E-01  -5.000000E-01   5.000000E-01
   3.500000E-01  -5.000000E-01   5.000000E-01
   3.000000E-01  -5.000000E-01   5.000000E-01
   2.500000E-01  -5.000000E-01   5.000000E-01
   2.000000E-01  -5.000000E-01   5.000000E-01
   1.500000E-01  -5.000000E-01   5.000000E-01
   1.000000E-01  -5.000000E-01   5.000000E-01
   5.000000E-02  -5.000000E-01   5.000000E-01
   1.376121E-12  -5.000000E-01   5.000000E-01
  -5.000000E-02  -5.000000E-01   5.000000E-01
  -1.000000E-01  -5.000000E-01   5.000000E-01
  -1.500000E-01  -5.000000E-01   5.000000E-01
  -2.000000E-01  -5.000000E-01   5.000000E-01
  -2.500000E-01  -5.000000E-01   5.000000E-01
  -3.000000E-01  -5.000000E-01   5.000000E-01
  -3.500000E-01  -5.000000E-01   5.000000E-01
  -4.000000E-01  -5.000000E-01   5.000000E-01
  -4.500000E-01  -5.000000E-01   5.000000E-01
  -5.000000E-01  -5.000000E-01   4.500000E-01
  -5.000000E-01  -5.000000E-01   4.000000E-01
  -5.000000E-01  -5.000000E-01   3.500000E-01
  -5.000000E-01  -5.000000E-01   3.000000E-01
  -5.000000E-01  -5.000000E-01   2.500000E-01
  -5.000000E-01  -5.000000E-01   2.000000E-01
  -5.000000E-01  -5.000000E-01   1.500000E-01
  -5.000000E-01  -5.000000E-01   1.000000E-01
[...]
CELL_DATA     484
SCALARS P double
LOOKUP_TABLE default
   1.448974E-12
   0.000000E+00
   0.000000E+00
   0.000000E+00
   0.000000E+00
   2.193619E-12
   1.364831E-12
   0.000000E+00
   0.000000E+00
   0.000000E+00
   4.352429E-13
   0.000000E+00
   1.996687E-12
   0.000000E+00
   0.000000E+00
   0.000000E+00
   3.036592E-12
   1.349777E-12
   0.000000E+00
   0.000000E+00
   4.960332E-13
   2.164213E-12
   0.000000E+00
   1.092218E-12
   0.000000E+00
   9.321759E-13
   0.000000E+00
   0.000000E+00
   7.861064E-13
   0.000000E+00
   0.000000E+00
   0.000000E+00
   1.426833E-13
   0.000000E+00
   1.376107E-12
   0.000000E+00
   0.000000E+00
   0.000000E+00
   0.000000E+00
   1.315459E-12
   0.000000E+00
   2.451183E-12
   0.000000E+00
   0.000000E+00
   0.000000E+00
   2.950392E-12
   1.443357E-12
   0.000000E+00
   1.959350E-12
   0.000000E+00
   0.000000E+00
   0.000000E+00
   1.668609E-12
   0.000000E+00
   8.994570E-13
   0.000000E+00
   0.000000E+00
   0.000000E+00
   0.000000E+00
   2.919396E-13
   1.206198E-12
   6.221488E-13
   0.000000E+00
   4.374548E-13
   0.000000E+00
   2.104207E-13
   0.000000E+00
   0.000000E+00
   0.000000E+00
   0.000000E+00
   2.062342E-12
   2.844529E-12
   1.516058E-13
   2.695060E-12
   2.195838E-12
   0.000000E+00
   0.000000E+00
   1.980784E-12
   0.000000E+00
   0.000000E+00
   3.009557E-13
   1.358235E-12
   1.590675E-13
   0.000000E+00
   0.000000E+00
   9.744213E-13
   1.290580E-12
   8.819152E-13
   3.085830E-13
   3.101716E-13
   0.000000E+00
   0.000000E+00
   0.000000E+00
   0.000000E+00
   1.159914E-12
   1.876243E-12
   0.000000E+00
   0.000000E+00
   1.046305E-12
   0.000000E+00
   0.000000E+00
   1.598206E-12
   1.690252E-12
   1.223593E-12
   0.000000E+00
   0.000000E+00
   1.689419E-12
   8.631615E-13
   1.300203E-13
   0.000000E+00
   8.970283E-13
   0.000000E+00
   0.000000E+00
   0.000000E+00
   1.966224E-12
   0.000000E+00
   0.000000E+00
   0.000000E+00
   7.122002E-13
   1.194024E-12
   1.511546E-12
   4.561037E-13
   4.539238E-13
   0.000000E+00
   5.643448E-13
   0.000000E+00
   4.890834E-13
   2.339253E-13
   1.178248E-12
   6.997871E-13
   0.000000E+00
   0.000000E+00
   1.283782E-13
   6.440687E-13
   5.296846E-13
   1.647594E-12
   0.000000E+00
   0.000000E+00
   0.000000E+00
   0.000000E+00
   5.801900E-13
   0.000000E+00
   3.973015E-13
   0.000000E+00
   0.000000E+00
   5.189742E-13
   0.000000E+00
   0.000000E+00
   0.000000E+00
   0.000000E+00
   4.424530E-13
   0.000000E+00
   0.000000E+00
   0.000000E+00
   2.142971E-12
   3.249202E-13
   0.000000E+00
   6.133651E-13
   0.000000E+00
   0.000000E+00
   0.000000E+00
   0.000000E+00
   1.737155E-12
   0.000000E+00
   0.000000E+00
   3.229638E-13
   1.415223E-12
   1.560618E-12
   1.480017E-12
   8.745028E-13
   0.000000E+00
   0.000000E+00
   0.000000E+00
   1.011494E-12
   0.000000E+00
   0.000000E+00
   2.630700E-12
   1.165378E-12
   2.549529E-12
   3.931355E-13
   1.306489E-12
   6.381356E-13
   0.000000E+00
   0.000000E+00
   0.000000E+00
   0.000000E+00
   0.000000E+00
   0.000000E+00
   4.896410E-13
   1.081015E-12
   0.000000E+00
   1.309366E-12
   5.513568E-13
   0.000000E+00
   2.102153E-12
   0.000000E+00
   0.000000E+00
   0.000000E+00
   0.000000E+00
   0.000000E+00
   1.317972E-12
   2.358026E-12
   0.000000E+00
   0.000000E+00
   0.000000E+00
   1.740479E-12
   1.853201E-12
   1.974266E-12
   0.000000E+00
   0.000000E+00
   0.000000E+00
   0.000000E+00
   0.000000E+00
   1.085562E-12
   1.459845E-12
   1.474718E-13
   0.000000E+00
   9.775904E-13
   0.000000E+00
   0.000000E+00
   0.000000E+00
   1.722733E-12
   1.357629E-13
   1.360168E-12
   2.147637E-12
   0.000000E+00
   0.000000E+00
   0.000000E+00
   1.360202E-13
   1.154915E-12
   0.000000E+00
   1.403173E-13
   1.087635E-12
   1.637633E-12
   1.081841E-12
   0.000000E+00
   0.000000E+00
   1.335817E-12
   0.000000E+00
   0.000000E+00
   3.141474E-12
   2.946248E-12
   0.000000E+00
   0.000000E+00
   1.369918E-13
   2.190198E-13
   2.524267E-12
   2.076588E-12
   1.400604E-12
   1.750181E-12
   0.000000E+00
   5.587964E-13
   0.000000E+00
   1.294377E-12
   0.000000E+00
   7.489829E-13
   0.000000E+00
   0.000000E+00
   1.535484E-12
   3.866991E-13
   9.489856E-13
   0.000000E+00
   0.000000E+00
   2.361347E-12
   4.398183E-13
   3.931547E-13
   0.000000E+00
   1.492802E-12
   1.007512E-12
   0.000000E+00
   9.433303E-13
   9.438285E-13
   0.000000E+00
   6.265625E-13
   8.129640E-13
   0.000000E+00
   0.000000E+00
   0.000000E+00
   1.945133E-12
   1.389871E-12
   0.000000E+00
   5.994600E-13
   3.679758E-13
   0.000000E+00
   0.000000E+00
   0.000000E+00
   0.000000E+00
   0.000000E+00
   1.773744E-12
   0.000000E+00
   0.000000E+00
   6.094711E-13
   0.000000E+00
   0.000000E+00
   0.000000E+00
   1.739227E-12
   0.000000E+00
   0.000000E+00
   0.000000E+00
   0.000000E+00
   0.000000E+00
   2.274044E-12
   0.000000E+00
   1.601038E-12
   0.000000E+00
   2.271546E-12
   1.319014E-13
   1.332085E-12
   0.000000E+00
   3.072062E-13
   0.000000E+00
   1.401866E-12
   5.099153E-13
   0.000000E+00
   0.000000E+00
   1.708300E-12
   0.000000E+00
   1.947528E-12
   0.000000E+00
   5.872194E-13
   4.095086E-13
   1.069918E-12
   0.000000E+00
   1.997437E-12
   0.000000E+00
   1.748348E-12
   0.000000E+00
   0.000000E+00
   2.372517E-12
   1.893944E-12
   0.000000E+00
   0.000000E+00
   0.000000E+00
   0.000000E+00
   0.000000E+00
   2.150936E-13
   1.772219E-12
   8.824238E-13
   1.336888E-12
   0.000000E+00
   0.000000E+00
   1.671913E-12
   1.605197E-12
   3.710012E-13
   3.261315E-13
   2.376664E-12
   0.000000E+00
   1.974140E-12
   0.000000E+00
   1.746218E-12
   2.067178E-12
   0.000000E+00
   0.000000E+00
   2.367496E-12
   0.000000E+00
   1.173412E-12
   9.340126E-13
   0.000000E+00
   1.459291E-12
   0.000000E+00
   1.077750E-12
   0.000000E+00
   2.329871E-13
   6.395369E-13
   0.000000E+00
   5.946453E-13
   0.000000E+00
   0.000000E+00
   0.000000E+00
   0.000000E+00
   0.000000E+00
   0.000000E+00
   1.431056E-13
   0.000000E+00
   0.000000E+00
   3.054904E-13
   0.000000E+00
   0.000000E+00
   5.845708E-13
   0.000000E+00
   1.795517E-12
   0.000000E+00
   0.000000E+00
   1.327272E-12
   0.000000E+00
   1.178828E-12
   3.959521E-13
   6.026612E-13
   1.278387E-12
   2.814662E-13
   0.000000E+00
   3.082016E-12
   0.000000E+00
   9.005246E-13
   2.379105E-12
   0.000000E+00
   0.000000E+00
   2.231213E-12
   0.000000E+00
   1.562655E-12
   0.000000E+00
   0.000000E+00
   1.530558E-12
   1.624166E-13
   1.958671E-12
   1.123169E-12
   0.000000E+00
   0.000000E+00
   1.516196E-13
   0.000000E+00
   1.891402E-12
   0.000000E+00
   0.000000E+00
   1.045449E-12
   1.494779E-13
   0.000000E+00
   0.000000E+00
   1.494436E-12
   3.884599E-13
   0.000000E+00
   0.000000E+00
   0.000000E+00
   0.000000E+00
   0.000000E+00
   0.000000E+00
   0.000000E+00
   7.541546E-13
   0.000000E+00
   2.837387E-12
   0.000000E+00
   0.000000E+00
   0.000000E+00
   1.340520E-12
   0.000000E+00
   8.533531E-13
   0.000000E+00
   2.031844E-12
   0.000000E+00
   1.124841E-12
   0.000000E+00
   0.000000E+00
   0.000000E+00
   0.000000E+00
   8.949842E-13
   5.644332E-13
   1.664564E-12
   1.272053E-12
   1.060245E-12
   0.000000E+00
   1.199343E-12
   3.318879E-13
   2.739918E-13
   0.000000E+00
   1.339691E-12
   0.000000E+00
   0.000000E+00
   0.000000E+00
   1.751985E-12
   2.097343E-12
   2.107967E-13
   1.189394E-13
   8.948072E-13
   0.000000E+00
   0.000000E+00
   0.000000E+00
   0.000000E+00
   0.000000E+00
   1.896700E-12
   0.000000E+00
   0.000000E+00
   0.000000E+00
   6.325145E-13
   0.000000E+00
   1.536269E-12
   0.000000E+00
   0.000000E+00
   0.000000E+00
   2.591752E-12
   0.000000E+00
   0.000000E+00
   0.000000E+00
   2.390142E-13
   1.602804E-12
   0.000000E+00
